
Host: carrie.wpunj.edu

Timers On : Thu Jan 26 14:18:51 2017
Timers Off: Thu Jan 26 14:18:51 2017

Wall Time:        0.00 seconds


***********************************************************
